27
 Atoms. Timestep: 1000
Cu 1.27345 0.731051 -0.0024185
Cu 3.82833 0.734938 -0.00292777
Cu 6.38623 0.730109 -0.0103038
Cu 2.54425 2.95055 -0.00423047
Cu 5.11075 2.94243 -0.00569453
Cu 7.65539 2.94593 -0.00469186
Cu 3.83263 5.16318 -0.00298139
Cu 6.38626 5.16553 6.25266
Cu 8.94128 5.16362 -0.00389976
Cu 7.67001 1.46998 2.08313
Cu 2.55498 1.47342 2.08235
Cu 5.10457 1.47133 2.08248
Cu 8.94356 3.69107 2.08327
Cu 3.83321 3.68555 2.08217
Cu 6.38787 3.68717 2.08272
Cu 10.2279 5.89042 2.0851
Cu 5.10921 5.89909 2.0812
Cu 7.6684 5.90392 2.08467
Cu -0.0106396 -0.00773369 4.16639
Cu 2.54602 -0.000979797 4.17068
Cu 5.1119 -0.00712697 4.17033
Cu 1.2666 2.21394 4.16733
Cu 3.82318 2.20921 4.17055
Cu 6.3863 2.20312 4.17476
Cu 2.54918 4.41921 4.1671
Cu 5.10964 4.41789 4.17177
Cu 7.66168 4.42015 4.16823
