bulk.lmp (written by ASE) 

27 	 atoms 
1  atom types
0.0        7.65796644025031  xlo xhi
0.0      6.6319934785854535  ylo yhi
0.0      6.2527034153236478  zlo zhi
      3.828983220125155                       0                       0  xy xz yz


Atoms 

     1   1      1.2763277400417183     0.73688816428727255                       0
     2   1       3.828983220125155     0.73688816428727255                       0
     3   1      6.3816387002085921     0.73688816428727255                       0
     4   1      2.5526554800834367      2.9475526571490902                       0
     5   1      5.1053109601668734      2.9475526571490902                       0
     6   1        7.65796644025031      2.9475526571490902                       0
     7   1       3.828983220125155      5.1582171500109082                       0
     8   1      6.3816387002085921      5.1582171500109082                       0
     9   1      8.9342941802920279      5.1582171500109082                       0
    10   1        7.65796644025031      1.4737763285745451      2.0842344717745491
    11   1      2.5526554800834367      1.4737763285745451      2.0842344717745491
    12   1      5.1053109601668734      1.4737763285745451      2.0842344717745491
    13   1      8.9342941802920279      3.6844408214363624      2.0842344717745491
    14   1      3.8289832201251555      3.6844408214363624      2.0842344717745491
    15   1      6.3816387002085921      3.6844408214363624      2.0842344717745491
    16   1      10.210621920333747      5.8951053142981804      2.0842344717745491
    17   1      5.1053109601668734      5.8951053142981804      2.0842344717745491
    18   1        7.65796644025031      5.8951053142981804      2.0842344717745491
    19   1                       0                       0      4.1684689435490982
    20   1      2.5526554800834367                       0      4.1684689435490982
    21   1      5.1053109601668734                       0      4.1684689435490982
    22   1      1.2763277400417183      2.2106644928618175      4.1684689435490982
    23   1       3.828983220125155      2.2106644928618175      4.1684689435490982
    24   1      6.3816387002085921      2.2106644928618175      4.1684689435490982
    25   1      2.5526554800834367      4.4213289857236351      4.1684689435490982
    26   1      5.1053109601668734      4.4213289857236351      4.1684689435490982
    27   1        7.65796644025031      4.4213289857236351      4.1684689435490982
