ITEM: TIMESTEP
0
ITEM: NUMBER OF ATOMS
27
ITEM: BOX BOUNDS xy xz yz pp pp pp
0.0000000000000000e+00 1.1486949660375465e+01 3.8289832201251550e+00
0.0000000000000000e+00 6.6319934785854535e+00 0.0000000000000000e+00
0.0000000000000000e+00 6.2527034153236478e+00 0.0000000000000000e+00
ITEM: ATOMS id type xs ys zs
1 1 0.111111 0.111111 3.07231e-17
2 1 0.444444 0.111111 1.21069e-17
3 1 0.777778 0.111111 1.48914e-17
4 1 0.111111 0.444444 9.31002e-19
5 1 0.444444 0.444444 0
6 1 0.777778 0.444444 0
7 1 0.111111 0.777778 0
8 1 0.444444 0.777778 1
9 1 0.777778 0.777778 0
10 1 0.888889 0.222222 0.333333
11 1 0.222222 0.222222 0.333333
12 1 0.555556 0.222222 0.333333
13 1 0.888889 0.555556 0.333333
14 1 0.222222 0.555556 0.333333
15 1 0.555556 0.555556 0.333333
16 1 0.888889 0.888889 0.333333
17 1 0.222222 0.888889 0.333333
18 1 0.555556 0.888889 0.333333
19 1 1.86211e-17 0 0.666667
20 1 0.333333 0 0.666667
21 1 0.666667 0 0.666667
22 1 5.55112e-17 0.333333 0.666667
23 1 0.333333 0.333333 0.666667
24 1 0.666667 0.333333 0.666667
25 1 5.55112e-17 0.666667 0.666667
26 1 0.333333 0.666667 0.666667
27 1 0.666667 0.666667 0.666667
ITEM: TIMESTEP
2000
ITEM: NUMBER OF ATOMS
27
ITEM: BOX BOUNDS xy xz yz pp pp pp
-6.5214015539019066e-03 1.1499992463483283e+01 3.8355046216790569e+00
-5.6476994139611492e-03 6.6376411779993951e+00 0.0000000000000000e+00
-5.3247020716060689e-03 6.2580281173952521e+00 0.0000000000000000e+00
ITEM: ATOMS id type xs ys zs
1 1 0.111158 0.111171 0.000192609
2 1 0.443355 0.11146 0.000382724
3 1 0.777721 0.110838 0.998932
4 1 0.110515 0.444868 -0.000373818
5 1 0.445017 0.443893 1.00001
6 1 0.777128 0.445373 0.000526912
7 1 0.111476 0.777204 0.000194772
8 1 0.443647 0.778687 0.999492
9 1 0.778122 0.777506 0.000621171
10 1 0.889392 0.222117 0.333285
11 1 0.222079 0.222727 0.333384
12 1 0.555717 0.222216 0.333066
13 1 0.887729 0.556239 0.332825
14 1 0.223162 0.55583 0.333759
15 1 0.556651 0.554625 0.333256
16 1 0.890496 0.88846 0.333282
17 1 0.222414 0.889473 0.333409
18 1 0.555957 0.889593 0.33282
19 1 0.999846 0.998963 0.666176
20 1 0.333387 0.000235035 0.666978
21 1 0.667423 0.999746 0.667548
22 1 0.999468 0.333703 0.66657
23 1 0.332487 0.333637 0.666929
24 1 0.666558 0.332413 0.667462
25 1 -0.00037962 0.666374 0.666571
26 1 0.3335 0.666229 0.666321
27 1 0.665973 0.666419 0.666374
