LAMMPS data file via write_data, version 28 Mar 2023, timestep = 1000

27 atoms
1 atom types

-0.006526472021937124 7.6644929122722525 xlo xhi
-0.005652090568089019 6.63764556915355 ylo yhi
-0.005328842091431696 6.258032257415055 zlo zhi
3.835509692147092 0 0 xy xz yz

Masses

1 63.55

Atoms # atomic

1 1 1.2734538898310412 0.7310514539019174 -0.0024184987429735553 0 0 0
2 1 3.8283289527257014 0.7349380787695686 -0.0029277748395570608 0 0 0
3 1 6.3862330682429915 0.7301087713658523 6.25305725268725 0 0 -1
4 1 2.54425483297343 2.950554675475101 -0.004230466781308747 0 0 0
5 1 5.110753833068527 2.9424302892715333 6.2576665678375845 0 0 -1
6 1 7.655385086808481 2.9459315047381605 -0.004691860319155325 0 0 0
7 1 3.83263434017716 5.163184391171734 -0.0029813948579659583 0 0 0
8 1 6.386255305576503 5.165525789708333 6.252655448417135 0 0 -1
9 1 8.941283192391538 5.163622694230046 -0.00389976119060007 0 0 0
10 1 7.670014263261914 1.4699813169480702 2.083127323892979 0 0 0
11 1 2.5549767740163984 1.4734176981359264 2.082351886741178 0 0 0
12 1 5.1045718314510555 1.4713288154937416 2.0824762968585198 0 0 0
13 1 8.943561271618291 3.6910714002860816 2.083270330637114 0 0 0
14 1 3.8332089399889697 3.6855455928800827 2.0821720516819555 0 0 0
15 1 6.387865574735575 3.687172272081873 2.0827158511395116 0 0 0
16 1 10.227884211323156 5.890421586061047 2.085102420433447 0 0 0
17 1 5.109205454772994 5.899087217974289 2.081201350516197 0 0 0
18 1 7.668397881513101 5.903923057861034 2.084668913259572 0 0 0
19 1 11.495889491739735 6.635563967318628 4.1663891798680375 -1 -1 0
20 1 2.546020757985684 -0.0009797969403814305 4.170684386450014 0 0 0
21 1 8.947412845880272 6.636170691718114 4.170329065577346 0 -1 0
22 1 8.93762213720546 2.213939098442826 4.167330907742882 -1 0 0
23 1 3.8231778820047246 2.2092071352031373 4.17054997360513 0 0 0
24 1 6.386299245321152 2.2031243195808363 4.174763945474152 0 0 0
25 1 2.549175325445005 4.4192077722495 4.167098411664823 0 0 0
26 1 5.109644983651977 4.417885472260442 4.171765816299073 0 0 0
27 1 7.661680951875039 4.420145524577475 4.168226833556598 0 0 0

Velocities

1 -0.05705397570623124 -0.06757068221353295 -0.05129907647980149
2 -0.16451520557802254 -0.10190400818505845 0.028549588598909093
3 0.003824849860561475 0.051037338607834944 -0.0631981767776812
4 0.00936652648202083 -0.10329493012357936 0.17500587474561724
5 0.31595950705251075 -0.09261052011984325 0.08608581389405935
6 0.02347734894310286 0.13317931371043826 0.0413770204561468
7 0.09704205342658209 -0.048225484159787925 -0.1258735368091012
8 -0.1865077864461205 0.11923138159866256 -0.2778463903394563
9 0.10637664024427092 0.019026736333885432 0.17814216540330113
10 -0.06490847507902166 -0.03232946314294115 -0.10307207932731985
11 0.14316821287461348 -0.04838843871515063 0.16138722978642023
12 -0.40441793141640064 -0.04947839544389716 -0.010477349981235938
13 -0.29988075265345027 0.18661223341402744 -0.17619564327723097
14 0.0743392426177779 -0.0414861428510031 -0.09740947856730053
15 -0.020022449705158863 -0.2034859452264667 0.02910132687191452
16 0.07358518344336643 -0.14336847276397902 -0.12348810113746764
17 0.05455022372563061 0.07705115084180723 0.019935989645280944
18 0.003502536550892659 0.14187141415964474 0.10161085142104712
19 0.07967861818754335 0.099173178420001 -0.06949660077145578
20 0.223543134652353 0.041628499903356514 -0.0246265339378052
21 0.09827302421547054 0.047152591096736085 0.0785208135701575
22 0.08545292298865005 0.0053480074278978735 -0.1623184369641055
23 -0.14742501395910476 0.052335298630568274 0.25223327425729103
24 0.08993061701938507 -0.016703462025168245 0.36441763337230226
25 -0.2644316090249774 -0.10976389387414981 -0.08236067626421305
26 0.25246134427589567 0.1060330620574184 -0.11446340899310728
27 -0.12536878699214485 -0.02107036735772663 -0.0342420923951609
