LAMMPS data file via write_data, version 28 Mar 2023, timestep = 2000

27 atoms
1 atom types

-0.006521401553901907 7.664487841804226 xlo xhi
-0.005647699413961149 6.637641177999395 ylo yhi
-0.005324702071606069 6.258028117395252 zlo zhi
3.835504621679057 0 0 xy xz yz

Masses

1 63.55

Atoms # atomic

1 1 1.272571370474263 0.7328910829085874 -0.004118321147898437 0 0 0
2 1 3.821963790205514 0.7348146084561031 -0.0029275682950910637 0 0 0
3 1 6.384507872661452 0.7306833662659257 6.25133961490514 0 0 -1
4 1 2.547535167676316 2.949737558733125 6.255686760517359 0 0 -1
5 1 5.109759628872618 2.9432604553573953 -0.005233576483840791 0 0 0
6 1 7.663060799685546 2.95309330934485 -0.002024466979831346 0 0 0
7 1 3.8295817871413624 5.157543162612912 -0.004104775539628124 0 0 0
8 1 6.3833607595623825 5.167397281957666 6.254844675123875 0 0 -1
9 1 8.944588619554395 5.1595485283472575 -0.0014340893097338461 0 0 0
10 1 7.667945275595695 1.4699417917127502 2.08215409066918 0 0 0
11 1 2.551320641004626 1.4739910491350598 2.082779628765003 0 0 0
12 1 5.108696714158567 1.4705972216646128 2.08078262591509 0 0 0
13 1 8.936712365516772 3.6896063845189686 2.079277641327816 0 0 0
14 1 3.8372450383567096 3.686892657880782 2.085128314068293 0 0 0
15 1 6.390814768394577 3.6788831907264603 2.081973093533692 0 0 0
16 1 10.23217961462212 5.896652017834847 2.082136428510728 0 0 0
17 1 5.11119652456852 5.903377709661181 2.082934791110584 0 0 0
18 1 7.670267411795811 5.904172852090849 2.0792458602274126 0 0 0
19 1 11.494837252210049 6.630752563275589 4.167169429685456 -1 -1 0
20 1 2.551791622162649 -0.004086292942646289 4.17219606010968 0 0 0
21 1 8.947822520562841 6.6359568133979 4.175766490334883 0 -1 0
22 1 8.940325328694998 2.211239740586911 4.169640997918085 -1 0 0
23 1 3.823661055600081 2.2108024812097287 4.171888907689099 0 0 0
24 1 6.38161887879774 2.202666807034008 4.1752233285072125 0 0 0
25 1 10.21745656286713 4.421267686479475 4.1696471096657595 -1 0 0
26 1 5.107085761195542 4.420305065796352 4.168080519866292 0 0 0
27 1 7.658218379985033 4.421567305563453 4.1684133069741085 0 0 0

Velocities

1 0.28623993835928035 -0.06851964572885941 0.026746852952232357
2 -0.011045555837089603 -0.10745320957863379 -0.024013070029650165
3 -0.05576257647257175 0.009398373621682377 -0.028303434339651455
4 -0.14588154823949914 -0.11715195005509815 0.2769943504368604
5 -0.01697394169587967 0.08636633062093771 -0.05971288141822835
6 -0.09661127678255946 -0.1053646687644974 -0.04641152159466317
7 0.14859355293354637 0.176333824557975 -0.18842520902248697
8 0.11595274931654821 0.0495446849282961 -0.014001037544370447
9 -0.24525034910090904 0.09269582101572607 0.05845335486862435
10 0.06951752536353883 0.04441297521621721 -0.012211303934614837
11 0.137202433228993 -0.22967088031762997 0.0232686226437626
12 -0.03873284690252939 0.10417032652568156 0.09892997341327915
13 0.0373233025508501 -0.02600950478971933 -0.03687325228074257
14 0.0211150475943823 -0.04243382604327195 0.019613970856923818
15 0.05052974549263538 0.18113465287988084 0.014577475430397849
16 -0.04742914301416517 0.0021832779308771882 0.039271111641720605
17 -0.033692377700299446 -0.015977879131663 -0.02273303531714628
18 -0.14147384058068593 -0.000978851335778654 -0.036277592609524185
19 -0.15430096825057377 0.16423012343717625 -0.13112782037625412
20 -0.1295120204898692 0.022934743671389 -0.034339406428622855
21 0.01830149370126156 -0.0009472586960994058 0.09472088308127485
22 -0.018367632858105144 0.13346451337587167 -0.21525574800645078
23 0.02462913030519133 -0.029854909862140164 0.29954955303507846
24 0.03876234060702093 -0.018141926166220908 0.24629183777330502
25 0.026244735747252133 -0.06781073428357957 -0.23150555937835232
26 -0.005440573276211561 -0.17394409541615508 -0.14730287975281098
27 0.16606265600044928 -0.06261030761235802 0.030075765900113825
