LAMMPS data file via write_data, version 28 Mar 2023, timestep = 1000

27 atoms
1 atom types

0 8.438121322723608 xlo xhi
0 6.6432976597216395 ylo yhi
0.12306593825325551 6.140295161253254 zlo zhi
4.219060661361802 0 0 xy xz yz

Masses

1 63.55

Atoms # atomic

1 1 1.4063535537872678 0.7381441844135164 0.12405962832549097 0 0 0
2 1 4.219060661361804 0.7381441844135168 0.13182127971535482 0 0 0
3 1 7.031767768936341 0.7381441844135164 0.12682766012263377 0 0 0
4 1 2.812707107574532 2.952576737654063 0.1233107345698386 0 0 0
5 1 5.625414215149064 2.952576737654063 0.12522839557904789 0 0 0
6 1 8.438121322723607 2.952576737654063 0.1264021937181965 0 0 0
7 1 4.2190606613618025 5.167009290894609 6.127929492917309 0 0 -1
8 1 7.031767768936339 5.167009290894609 6.131376916787563 0 0 -1
9 1 9.844474876510876 5.167009290894609 0.1255718010557377 0 0 0
10 1 8.438121322723607 1.4762883688270314 2.13021798240193 0 0 0
11 1 2.8127071075745347 1.4762883688270323 2.1377814846164367 0 0 0
12 1 5.625414215149072 1.4762883688270316 2.1408297091325585 0 0 0
13 1 9.844474876510874 3.6907209220675785 2.1254693847292243 0 0 0
14 1 4.219060661361801 3.6907209220675785 2.1343659110453186 0 0 0
15 1 7.031767768936332 3.6907209220675785 2.1326137716813856 0 0 0
16 1 11.250828430298128 5.905153475308126 2.1186538119104315 0 0 0
17 1 5.625414215149064 5.905153475308126 2.1258905149476606 0 0 0
18 1 8.438121322723601 5.905153475308126 2.124956591689839 0 0 0
19 1 1.7712026388672006e-16 8.156854257941056e-17 4.122395427665037 0 0 0
20 1 2.812707107574536 4.661059575966318e-16 4.128779331131289 0 0 0
21 1 5.625414215149072 3.6692615445507553e-16 4.142292531285586 0 0 0
22 1 9.844474876510874 2.2144325532405467 4.1300825125081495 -1 0 0
23 1 4.219060661361803 2.2144325532405467 4.144689618357518 0 0 0
24 1 7.031767768936339 2.2144325532405467 4.138493549736189 0 0 0
25 1 11.250828430298139 4.428865106481093 4.131856368637736 -1 0 0
26 1 5.625414215149071 4.428865106481093 4.127981984519252 0 0 0
27 1 8.438121322723607 4.428865106481093 4.132423197051315 0 0 0

Velocities

1 0 0 -0.06815030354174578
2 0 0 0.225031542061354
3 0 0 0.04303243393719586
4 0 0 -0.508401031545669
5 0 0 0.39801346381882335
6 0 0 -0.23303288550621962
7 0 0 0.0008117193519534736
8 0 0 -0.07168433683074249
9 0 0 0.2176638357599336
10 0 0 -0.22160052719449377
11 0 0 0.10001333400575359
12 0 0 0.04455841930069861
13 0 0 0.08305897834821588
14 0 0 0.001886646559603079
15 0 0 0.13881044110400625
16 0 0 -0.043467563224987855
17 0 0 -0.18758727023500354
18 0 0 0.20159918931702328
19 0 0 0.0760085236373084
20 0 0 0.08013829553926234
21 0 0 -0.2293830907716657
22 0 0 -0.011496057633875206
23 0 0 -0.12368907764215321
24 0 0 -0.15924655675165836
25 0 0 0.33275524033578796
26 0 0 -0.14304573759742506
27 0 0 0.05740237539873322
