strain.lmp (written by ASE) 

27 	 atoms 
1  atom types
0.0      8.4381213227236085  xlo xhi
0.0      6.6432976597216395  ylo yhi
0.0      6.2633610995064863  zlo zhi
     4.2190606613618016                       0                       0  xy xz yz


Atoms 

     1   1       1.406353553787268      0.7381441844135157                       0
     2   1      4.2190606613618034      0.7381441844135157                       0
     3   1      7.0317677689363416      0.7381441844135157                       0
     4   1      2.8127071075745356      2.9525767376540628                       0
     5   1       5.625414215149072      2.9525767376540628                       0
     6   1      8.4381213227236067      2.9525767376540628                       0
     7   1      4.2190606613618025      5.1670092908946099                       0
     8   1      7.0317677689363407      5.1670092908946099                       0
     9   1      9.8444748765108745      5.1670092908946099                       0
    10   1      8.4381213227236067      1.4762883688270314      2.0877870331688286
    11   1       2.812707107574536      1.4762883688270314      2.0877870331688286
    12   1       5.625414215149072      1.4762883688270314      2.0877870331688286
    13   1      9.8444748765108763      3.6907209220675776      2.0877870331688286
    14   1      4.2190606613618042      3.6907209220675776      2.0877870331688286
    15   1      7.0317677689363407      3.6907209220675776      2.0877870331688286
    16   1      11.250828430298142      5.9051534753081256      2.0877870331688286
    17   1      5.6254142151490711      5.9051534753081256      2.0877870331688286
    18   1      8.4381213227236049      5.9051534753081256      2.0877870331688286
    19   1                       0                       0      4.1755740663376573
    20   1      2.8127071075745365                       0      4.1755740663376573
    21   1      5.6254142151490729                       0      4.1755740663376573
    22   1      1.4063535537872676      2.2144325532405467      4.1755740663376573
    23   1      4.2190606613618034      2.2144325532405467      4.1755740663376573
    24   1      7.0317677689363407      2.2144325532405467      4.1755740663376573
    25   1      2.8127071075745351      4.4288651064810933      4.1755740663376573
    26   1       5.625414215149072      4.4288651064810933      4.1755740663376573
    27   1      8.4381213227236067      4.4288651064810933      4.1755740663376573
